ITEM: TIMESTEP
1000
ITEM: NUMBER OF ATOMS
512
ITEM: BOX BOUNDS pp pp pp
0.0000000000000000e+00 2.0000000000000000e+01
0.0000000000000000e+00 2.0000000000000000e+01
0.0000000000000000e+00 2.0000000000000000e+01
ITEM: ATOMS id type x y z xu yu zu ix iy iz vx vy vz fx fy fz
1 2 5.13076 8.17566 0.924292 5.13076 8.17566 20.9243 0 0 1 1.24255 0.990866 -0.597897 7.10269 -3.12736 -6.07407
2 2 5.37573 8.07333 19.6671 5.37573 8.07333 19.6671 0 0 0 0.497564 1.41841 0.434912 -4.21416 -56.5753 11.6916
3 2 5.7803 8.94236 19.6361 5.7803 8.94236 19.6361 0 0 0 0.413254 0.919371 -0.490611 16.012 49.5708 -15.6518
4 2 6.48229 8.82009 18.9074 6.48229 8.82009 18.9074 0 0 0 -0.117763 0.494268 0.447715 13.4653 -5.47356 -3.67459
5 2 6.08434 8.35284 17.8756 6.08434 8.35284 17.8756 0 0 0 1.34705 -1.46898 0.276066 27.3353 19.2935 0.719882
6 2 5.35259 8.31967 17.1679 5.35259 8.31967 17.1679 0 0 0 -2.28353 0.424292 -0.662266 11.6289 -1.40358 6.42548
7 2 4.65457 8.00597 16.6021 4.65457 8.00597 16.6021 0 0 0 -0.293241 -0.630506 -0.352658 -31.5957 -22.997 -41.0224
8 2 5.22402 7.05673 16.311 5.22402 7.05673 16.311 0 0 0 -0.153511 0.582837 -2.25766 -17.1828 -3.62816 13.0697
9 2 4.93167 6.63191 15.2607 4.93167 6.63191 15.2607 0 0 0 0.5505 -3.05231 -0.473962 -22.5616 2.92687 21.34
10 2 5.73321 6.01442 15.4519 5.73321 6.01442 15.4519 0 0 0 -0.838859 0.102749 -0.124736 2.92295 -8.18984 -6.16729
11 2 6.67982 6.42323 16.0599 6.67982 6.42323 16.0599 0 0 0 1.82238 0.379851 -0.976024 -33.4749 8.72536 3.43067
12 2 7.23142 6.37524 15.2218 7.23142 6.37524 15.2218 0 0 0 0.394259 0.219211 -0.135587 1.50507 -16.8616 -6.38766
13 2 8.25379 6.0414 14.877 8.25379 6.0414 14.877 0 0 0 -2.83308 -0.552495 -0.838012 -14.4563 -12.9346 -3.61685
14 2 9.13134 5.89014 14.3943 9.13134 5.89014 14.3943 0 0 0 1.65022 -2.40034 -1.22215 -10.063 -11.0648 13.7143
15 2 9.31553 6.73401 13.7473 9.31553 6.73401 13.7473 0 0 0 -2.00264 -0.533155 -1.02381 -8.46451 -26.4245 14.5295
16 2 9.68123 6.67396 12.598 9.68123 6.67396 12.598 0 0 0 1.73813 0.759427 -0.535146 5.7983 -24.8716 23.0702
17 2 10.0828 6.93764 11.7402 10.0828 6.93764 11.7402 0 0 0 -0.999499 -0.713603 0.825359 15.1235 19.4741 -36.9196
18 2 11.0478 7.52217 11.5409 11.0478 7.52217 11.5409 0 0 0 1.34982 0.896887 0.439737 -24.281 -18.11 9.90356
19 2 11.4399 8.14129 10.8709 11.4399 8.14129 10.8709 0 0 0 0.131882 2.17512 0.420442 -0.647575 -3.17727 -30.9921
20 2 11.8238 8.55559 9.95164 11.8238 8.55559 9.95164 0 0 0 1.45805 -1.60638 0.426866 13.7974 9.64355 -15.0842
21 2 11.8019 9.72484 9.54114 11.8019 9.72484 9.54114 0 0 0 0.450452 -1.89369 1.3325 17.2924 -5.99385 -7.92812
22 2 12.9182 9.49183 9.19961 12.9182 9.49183 9.19961 0 0 0 -0.411216 -1.8374 -0.374298 -19.6971 -10.331 -15.6711
23 2 13.7404 10.1723 8.84206 13.7404 10.1723 8.84206 0 0 0 -0.313102 1.14364 0.432867 -16.5765 10.6121 16.9785
24 2 14.5071 10.8776 9.21037 14.5071 10.8776 9.21037 0 0 0 0.798239 -0.270524 -1.62048 9.19751 -4.2969 -0.55229
25 2 15.3324 11.4202 8.83929 15.3324 11.4202 8.83929 0 0 0 2.17228 1.10168 -0.819388 1.25047 17.4104 8.42048
26 2 15.4977 12.5637 9.14508 15.4977 12.5637 9.14508 0 0 0 0.254385 -0.911497 -0.773696 23.7907 8.94075 -24.206
27 2 16.1785 13.4697 8.78578 16.1785 13.4697 8.78578 0 0 0 -1.50344 -2.26979 -0.527227 5.20854 -16.5058 -13.6696
28 2 16.7394 14.2474 9.12872 16.7394 14.2474 9.12872 0 0 0 -2.29451 -0.206209 -0.918525 -8.38213 18.0687 -14.7883
29 2 16.8514 15.1141 8.57145 16.8514 15.1141 8.57145 0 0 0 -0.12989 0.545598 1.1582 35.1213 -12.1177 -15.3411
30 2 18.1007 15.2691 9.07964 18.1007 15.2691 9.07964 0 0 0 1.1567 -0.444644 -0.718808 -16.3159 -5.4705 -30.942
31 2 18.2587 15.9761 8.26717 18.2587 15.9761 8.26717 0 0 0 0.470708 -0.638513 1.31415 -22.1467 -17.229 -17.3671
32 2 19.1072 16.45 8.35337 19.1072 16.45 8.35337 0 0 0 0.182135 -0.429799 -0.220783 10.6181 15.1951 17.8537
33 2 1.5041 1.88469 3.26267 21.5041 1.88469 3.26267 1 0 0 0.723628 -0.0513902 -1.77534 1.8402 16.0876 -6.72702
34 2 0.789102 1.79666 4.10329 20.7891 1.79666 4.10329 1 0 0 -0.323347 0.0920296 -0.0224686 -5.55899 18.9955 -4.35659
35 2 0.126636 1.62936 4.8416 20.1266 1.62936 4.8416 1 0 0 -1.1139 0.801989 -1.09171 8.94052 -19.7285 -5.26095
36 2 19.3737 2.12515 4.38999 19.3737 2.12515 4.38999 0 0 0 0.814638 0.850388 -0.557488 -5.61843 6.58945 -23.16
37 2 18.8722 3.21033 4.40976 18.8722 3.21033 4.40976 0 0 0 2.50239 0.13769 1.09104 5.68064 1.27687 7.33734
38 2 18.0714 4.15647 4.32643 18.0714 4.15647 4.32643 0 0 0 -0.423803 -0.44034 -0.205361 -8.92303 5.10987 8.51238
39 2 16.99 4.62664 5.04213 16.99 4.62664 5.04213 0 0 0 -0.114438 -0.344582 -1.57846 -18.2816 26.9146 -8.98367
40 2 16.128 5.65213 4.81292 16.128 5.65213 4.81292 0 0 0 2.10989 -0.789204 0.00907463 -16.1113 -23.328 16.7807
41 2 15.3853 6.37003 5.3462 15.3853 6.37003 5.3462 0 0 0 0.157908 0.492039 0.21065 10.9007 -23.9441 0.222349
42 2 15.3397 6.72207 6.28589 15.3397 6.72207 6.28589 0 0 0 0.486046 -0.127406 -0.543091 -29.0195 2.93836 14.3952
43 2 14.1444 6.90795 6.33568 14.1444 6.90795 6.33568 0 0 0 -1.73672 0.315224 -0.271939 26.6866 -30.833 -13.8178
44 2 13.6293 6.31307 7.13304 13.6293 6.31307 7.13304 0 0 0 0.548652 0.889492 -0.178754 3.57358 24.2305 -23.7367
45 2 12.7543 6.27796 6.59164 12.7543 6.27796 6.59164 0 0 0 0.47128 0.356433 -1.70151 -3.15485 6.00669 7.81991
46 2 11.9945 5.89545 7.25636 11.9945 5.89545 7.25636 0 0 0 0.0838647 -2.21379 0.721394 -15.5419 -1.31678 20.4001
47 2 11.2166 6.45923 8.06736 11.2166 6.45923 8.06736 0 0 0 0.716316 -0.778366 1.75492 3.95565 -14.7208 -13.1784
48 2 10.3133 6.94445 8.71617 10.3133 6.94445 8.71617 0 0 0 -0.921649 -1.90353 -0.980614 2.11078 -17.1535 15.3962
49 2 9.34585 6.80687 9.14122 9.34585 6.80687 9.14122 0 0 0 -1.85717 -1.79977 0.830232 -11.7479 -3.04373 20.8876
50 2 8.5234 7.07551 9.79939 8.5234 7.07551 9.79939 0 0 0 -1.17394 0.766186 -0.421635 7.66761 -9.03628 22.3165
51 2 7.48188 6.86041 10.3457 7.48188 6.86041 10.3457 0 0 0 -0.0511382 0.793292 -0.873783 10.5682 -3.22632 -16.3918
52 2 7.21185 7.05306 11.2924 7.21185 7.05306 11.2924 0 0 0 -0.533654 0.109276 -1.59531 8.80345 13.8241 16.9402
53 2 6.51948 7.68672 11.7967 6.51948 7.68672 11.7967 0 0 0 0.280878 -0.0264748 -0.996893 17.0071 -14.8535 -11.2746
54 2 6.67191 8.38595 12.7172 6.67191 8.38595 12.7172 0 0 0 -1.66738 0.254366 0.489563 8.91248 -3.40068 -0.986694
55 2 5.89005 9.09864 13.0794 5.89005 9.09864 13.0794 0 0 0 0.617891 1.95652 1.15536 21.4777 -30.1381 6.82176
56 2 5.20914 9.87704 13.0601 5.20914 9.87704 13.0601 0 0 0 -1.40715 1.96174 -0.839959 -4.66452 15.3163 9.03394
57 2 4.59015 10.6967 13.4284 4.59015 10.6967 13.4284 0 0 0 -2.22145 -0.243761 -0.0509976 -5.97755 -8.85033 -6.64304
58 2 3.65796 11.4716 13.9047 3.65796 11.4716 13.9047 0 0 0 -2.19627 0.459768 0.587171 20.8275 -13.0936 1.24669
59 2 3.68239 12.3162 14.8476 3.68239 12.3162 14.8476 0 0 0 -0.189333 0.584697 -0.514352 -29.7295 -5.53321 -19.5756
60 2 2.52235 12.7335 15.1774 2.52235 12.7335 15.1774 0 0 0 -0.558957 0.269489 -0.662905 -6.27209 26.7505 -8.16969
61 2 2.02958 13.7665 14.8545 2.02958 13.7665 14.8545 0 0 0 0.917863 0.0426718 1.43265 6.21446 -1.52634 21.1247
62 2 1.37312 13.3429 15.6439 1.37312 13.3429 15.6439 0 0 0 0.607094 -0.0834054 1.98174 16.8778 10.3187 -19.5284
63 2 0.928961 13.3204 16.5926 0.928961 13.3204 16.5926 0 0 0 -0.464895 0.442965 -0.234223 11.082 -7.93584 -6.95156
64 2 1.24967 12.3539 16.5317 1.24967 12.3539 16.5317 0 0 0 -1.55923 -0.808972 -1.03505 -15.1639 -16.8251 20.338
65 2 10.9722 1.99255 1.14922 10.9722 1.99255 1.14922 0 0 0 1.10407 -1.68664 -0.103483 23.7287 -13.8485 1.47141
66 2 12.0716 2.21799 1.97766 12.0716 2.21799 1.97766 0 0 0 -0.493364 0.174414 -2.77528 -0.365987 10.5376 0.164245
67 2 11.6455 1.42295 2.51166 11.6455 1.42295 2.51166 0 0 0 0.965917 0.71065 0.321299 17.2699 9.96765 22.1227
68 2 11.9063 2.32021 3.39133 11.9063 2.32021 3.39133 0 0 0 -0.495151 -0.247613 -0.355442 20.2982 6.5782 8.1815
69 2 12.2918 2.99326 4.32594 12.2918 2.99326 4.32594 0 0 0 -1.62053 -1.56119 0.701261 -27.6541 3.62303 2.38516
70 2 11.6607 4.15128 4.86579 11.6607 4.15128 4.86579 0 0 0 0.613571 0.843153 -1.98215 -14.9773 -6.83175 6.65864
71 2 11.437 5.21619 4.80241 11.437 5.21619 4.80241 0 0 0 1.54434 -1.13464 -0.949323 -12.3146 -10.9758 24.1836
72 2 10.3322 5.41535 5.1745 10.3322 5.41535 5.1745 0 0 0 -1.75187 -0.780235 -1.14833 35.5982 10.2817 -26.2155
73 2 9.46772 5.85518 5.23846 9.46772 5.85518 5.23846 0 0 0 0.234901 0.774142 1.06464 -38.8711 14.2738 6.24955
74 2 8.99663 6.74889 5.64813 8.99663 6.74889 5.64813 0 0 0 -0.33364 -1.02256 -0.859462 27.7678 -8.95931 -11.3747
75 2 8.44143 7.29528 6.30382 8.44143 7.29528 6.30382 0 0 0 0.80279 -0.134547 0.256869 -23.1617 14.653 -6.43913
76 2 8.15852 8.2799 6.96408 8.15852 8.2799 6.96408 0 0 0 0.636414 1.07883 -1.53404 -7.5896 15.4026 -0.653508
77 2 8.20071 9.2617 7.45754 8.20071 9.2617 7.45754 0 0 0 -1.81701 1.1309 0.717394 -0.931232 0.387658 -47.9232
78 2 7.81122 9.47775 8.31985 7.81122 9.47775 8.31985 0 0 0 2.49204 1.42731 2.47088 -19.1087 -3.31497 47.3697
79 2 7.19543 10.2737 8.52837 7.19543 10.2737 8.52837 0 0 0 1.32867 -0.346245 -0.316559 18.3593 -47.2579 10.1819
80 2 6.84955 11.1513 8.45644 6.84955 11.1513 8.45644 0 0 0 1.2293 -0.107133 -0.451797 -23.8734 69.5557 3.53761
81 2 5.79712 11.6737 8.19516 5.79712 11.6737 8.19516 0 0 0 -0.201601 -0.0741901 -0.991935 6.12102 8.0484 -0.512673
82 2 5.70345 12.0886 9.1797 5.70345 12.0886 9.1797 0 0 0 -0.345578 1.66461 0.964991 -1.01141 -19.1774 19.3304
83 2 6.11499 11.7025 10.3987 6.11499 11.7025 10.3987 0 0 0 0.75767 -1.33496 -1.57177 -3.16224 23.5343 -32.6507
84 2 6.26881 12.4383 11.1523 6.26881 12.4383 11.1523 0 0 0 0.165053 0.457901 -0.579446 -26.9214 17.6226 -63.616
85 2 6.38002 12.2408 12.0846 6.38002 12.2408 12.0846 0 0 0 0.262837 -1.39564 -0.0576333 16.2385 18.7483 64.7547
86 2 5.80357 13.1406 12.2649 5.80357 13.1406 12.2649 0 0 0 0.683875 -1.15598 -1.63086 19.1529 -25.6525 -8.10427
87 2 5.52123 13.9246 12.7665 5.52123 13.9246 12.7665 0 0 0 0.510851 0.240507 -1.90444 -8.53932 11.4568 10.6301
88 2 6.51606 14.2449 12.9255 6.51606 14.2449 12.9255 0 0 0 -0.0408838 -0.39426 1.7335 -13.2925 -5.61166 33.8417
89 2 6.21896 14.3212 14.1347 6.21896 14.3212 14.1347 0 0 0 1.36889 -0.036135 0.551446 22.3753 17.5464 -34.739
90 2 6.42595 15.3105 14.4719 6.42595 15.3105 14.4719 0 0 0 0.858981 1.99887 -1.90781 13.366 20.6689 -21.1105
91 2 6.70987 16.2817 13.9824 6.70987 16.2817 13.9824 0 0 0 0.537368 0.956061 -0.676257 9.85857 -7.24657 27.0231
92 2 6.78878 16.3403 15.0973 6.78878 16.3403 15.0973 0 0 0 -0.288298 -0.224097 -0.216444 15.5777 6.95869 1.45974
93 2 6.49879 17.2824 14.7375 6.49879 17.2824 14.7375 0 0 0 1.4498 -0.824957 -0.593283 -26.792 9.48643 -4.72965
94 2 5.99148 17.2449 15.7658 5.99148 17.2449 15.7658 0 0 0 0.399383 -0.491887 0.162547 19.7737 5.63961 -17.731
95 2 6.63347 17.9249 16.1949 6.63347 17.9249 16.1949 0 0 0 0.410535 -1.27758 -0.0344414 22.7481 -13.6962 23.7989
96 2 6.96049 17.5266 17.1235 6.96049 17.5266 17.1235 0 0 0 1.44963 -0.634436 1.82736 15.0078 -15.6136 -1.30972
97 2 15.0243 13.3827 18.1329 15.0243 13.3827 18.1329 0 0 0 0.123007 0.278768 -1.0646 -4.14193 -26.7145 10.5091
98 2 15.073 12.2312 18.0955 15.073 12.2312 18.0955 0 0 0 0.165741 -0.49508 0.0450616 9.2539 2.74546 3.44885
99 2 16.168 12.1678 18.2093 16.168 12.1678 18.2093 0 0 0 0.518685 -2.10209 -0.420165 -15.351 -23.4931 -1.06149
100 2 16.1525 11.3045 17.5135 16.1525 11.3045 17.5135 0 0 0 0.752736 -1.76967 -1.64335 -53.8646 2.20951 17.8799
101 2 16.7028 11.2041 16.5288 16.7028 11.2041 16.5288 0 0 0 -1.53774 0.308844 2.07935 -9.49844 -27.5988 -9.8727
102 2 17.4769 10.5252 16.4032 17.4769 10.5252 16.4032 0 0 0 -0.153407 -0.657557 0.687844 -1.05474 10.9946 0.284369
103 2 18.451 10.2991 16.3242 18.451 10.2991 16.3242 0 0 0 -1.88227 2.73967 0.287222 20.2873 19.0361 8.29265
104 2 18.1483 10.747 15.3527 18.1483 10.747 15.3527 0 0 0 0.603622 1.15423 0.393812 6.12394 -26.385 -2.02465
105 2 17.282 10.5478 14.4833 17.282 10.5478 14.4833 0 0 0 -0.989091 0.828504 0.997739 -6.5245 18.9377 16.1154
106 2 17.6187 10.6829 13.5447 17.6187 10.6829 13.5447 0 0 0 -0.480833 -0.801588 -0.910096 3.66149 -19.5012 -26.6832
107 2 17.2151 9.81035 12.942 17.2151 9.81035 12.942 0 0 0 -0.0295838 -0.489748 -1.1932 16.2245 2.99974 -13.2652
108 2 16.5903 9.25687 11.9619 16.5903 9.25687 11.9619 0 0 0 0.941006 1.31477 -0.0251545 17.2095 -11.4869 8.97147
109 2 15.471 8.96716 11.8843 15.471 8.96716 11.8843 0 0 0 -1.06062 -1.78525 0.883793 -15.0454 11.7205 7.89233
110 2 14.607 8.27389 11.7603 14.607 8.27389 11.7603 0 0 0 0.346693 -0.54988 -1.65783 -8.38433 -1.52682 -24.4052
111 2 13.9332 7.32956 11.3205 13.9332 7.32956 11.3205 0 0 0 1.19742 -0.657407 -1.57195 4.45243 6.97858 14.7267
112 2 13.1982 6.66693 10.6194 13.1982 6.66693 10.6194 0 0 0 -2.29216 0.0819785 -0.667599 14.4812 -3.05025 20.2636
113 2 12.2351 5.65006 10.1922 12.2351 5.65006 10.1922 0 0 0 -1.41203 -0.030146 -0.565043 19.4612 14.3056 -1.91364
114 2 12.0886 4.745 9.68941 12.0886 4.745 9.68941 0 0 0 -0.563408 -0.0788444 0.613797 -26.1958 -15.9068 0.330134
115 2 10.9684 4.65481 9.56959 10.9684 4.65481 9.56959 0 0 0 0.125166 -1.57233 0.712146 2.66661 17.7517 14.9921
116 2 10.249 5.67391 9.40817 10.249 5.67391 9.40817 0 0 0 -0.387938 0.0926003 -1.65896 34.4532 -8.54721 -6.18138
117 2 9.59437 4.99284 9.11251 9.59437 4.99284 9.11251 0 0 0 1.29214 -0.261272 0.848359 3.70762 -8.64392 -7.78103
118 2 8.62704 5.31089 9.04802 8.62704 5.31089 9.04802 0 0 0 1.6583 0.773808 0.634426 3.03673 0.715085 10.5483
119 2 7.95164 4.62343 8.43483 7.95164 4.62343 8.43483 0 0 0 -0.253227 0.230465 1.67197 1.42079 -19.18 -18.3787
120 2 8.43678 3.9575 7.43967 8.43678 3.9575 7.43967 0 0 0 0.621812 0.630596 -0.661137 -24.8283 0.509924 13.3631
121 2 7.13277 3.18496 7.34097 7.13277 3.18496 7.34097 0 0 0 0.513566 -0.254379 0.0097526 19.7698 18.647 4.78255
122 2 6.16129 3.17497 6.74175 6.16129 3.17497 6.74175 0 0 0 2.99481 0.985498 0.814945 25.301 -2.40568 -1.27129
123 2 5.80049 2.19931 6.55114 5.80049 2.19931 6.55114 0 0 0 0.0259684 -0.760375 1.12677 0.973792 -4.30686 0.0487761
124 2 6.10786 1.54811 5.57295 6.10786 1.54811 5.57295 0 0 0 0.321886 -0.324349 0.76298 -10.2427 22.9765 8.22275
125 2 6.09815 2.37417 4.97719 6.09815 2.37417 4.97719 0 0 0 -0.583854 0.450561 1.03672 -13.1582 -14.5571 10.4961
126 2 6.24843 2.83932 4.04168 6.24843 2.83932 4.04168 0 0 0 -0.0463326 0.523502 1.05218 -12.4288 6.07643 14.4422
127 2 5.84691 2.82087 3.06823 5.84691 2.82087 3.06823 0 0 0 0.20793 -0.750338 2.22894 6.98136 -12.0368 -21.4286
128 2 4.94725 2.59912 3.42054 4.94725 2.59912 3.42054 0 0 0 -0.0650954 -0.237746 -0.113338 -0.145894 -19.6231 16.6619
129 2 18.7963 5.90977 15.1156 18.7963 5.90977 15.1156 0 0 0 -1.23721 -1.57005 -0.258215 1.83611 -17.1433 -6.60859
130 2 18.0217 5.83427 15.9915 18.0217 5.83427 15.9915 0 0 0 -0.920443 1.04018 0.797666 -9.22876 11.9562 -32.8774
131 2 17.226 6.34157 15.2742 17.226 6.34157 15.2742 0 0 0 -0.887012 -0.0300402 -0.433318 1.07129 -3.34477 7.25149
132 2 16.2785 7.19069 15.4572 16.2785 7.19069 15.4572 0 0 0 -0.806775 0.777726 -0.468659 18.4586 -7.17184 20.2376
133 2 15.4685 7.29738 14.9047 15.4685 7.29738 14.9047 0 0 0 1.6545 1.50188 1.28165 -16.7015 -7.11689 5.86723
134 2 15.2876 8.49066 14.9563 15.2876 8.49066 14.9563 0 0 0 2.14152 -0.0769752 -1.39178 -16.0619 -30.3625 14.453
135 2 15.2991 9.25814 14.3509 15.2991 9.25814 14.3509 0 0 0 0.0661236 -0.660131 0.285142 7.10552 22.4798 10.1629
136 2 15.0982 10.1209 13.883 15.0982 10.1209 13.883 0 0 0 -0.858995 -0.139067 -0.0390957 -23.7062 -0.534753 10.5319
137 2 14.978 11.1934 13.8742 14.978 11.1934 13.8742 0 0 0 -0.447038 -0.706225 0.796436 5.75404 -17.4827 -19.2553
138 2 14.495 11.7395 13.0097 14.495 11.7395 13.0097 0 0 0 0.723227 0.407161 -0.633037 12.2798 23.316 15.4745
139 2 13.5678 12.578 12.4575 13.5678 12.578 12.4575 0 0 0 -0.773999 -0.16745 -0.51833 15.3322 11.5414 -16.5646
140 2 14.0684 13.1289 11.349 14.0684 13.1289 11.349 0 0 0 -0.201178 0.85967 -2.28629 -15.1804 -21.9256 -5.38534
141 2 13.7914 13.3132 10.0633 13.7914 13.3132 10.0633 0 0 0 1.31198 0.663723 -1.60779 -12.4937 3.46833 -8.62467
142 2 13.1821 14.012 9.22854 13.1821 14.012 9.22854 0 0 0 -1.51454 -0.717867 -0.19842 11.1326 -0.249254 4.68592
143 2 12.6849 13.7372 8.37542 12.6849 13.7372 8.37542 0 0 0 1.06714 1.47257 -1.74117 -25.3195 -4.6882 3.97192
144 2 12.3399 14.704 7.39699 12.3399 14.704 7.39699 0 0 0 -0.0136491 0.794515 1.12822 -12.4105 -4.20928 7.15574
145 2 11.0542 14.4379 7.62805 11.0542 14.4379 7.62805 0 0 0 -1.08073 -0.156077 -0.228312 23.937 5.23131 -10.8867
146 2 10.0848 14.9606 7.41481 10.0848 14.9606 7.41481 0 0 0 -1.37471 -2.06937 1.86019 16.664 -14.5837 2.84548
147 2 9.51774 15.9569 7.31315 9.51774 15.9569 7.31315 0 0 0 -0.221423 -0.775046 0.55799 10.0974 -0.971856 1.14841
148 2 8.51522 15.5793 7.06972 8.51522 15.5793 7.06972 0 0 0 -1.0612 -1.25529 -0.640229 24.3363 -16.9038 -5.33742
149 2 8.24464 15.6742 6.07138 8.24464 15.6742 6.07138 0 0 0 0.630622 0.985431 -0.10922 -14.0632 2.02196 -54.9428
150 2 7.51679 15.9226 5.09635 7.51679 15.9226 5.09635 0 0 0 -0.779546 0.334122 -0.467748 1.58286 9.68446 26.0319
151 2 6.69639 16.5269 4.44437 6.69639 16.5269 4.44437 0 0 0 0.416502 3.75174 2.39411 -16.146 -0.210295 -9.28327
152 2 6.06065 15.7429 3.67889 6.06065 15.7429 3.67889 0 0 0 0.98582 0.170028 0.591581 21.8889 20.1181 31.8297
153 2 5.44803 15.5583 2.88461 5.44803 15.5583 2.88461 0 0 0 -0.533874 -0.138975 -0.53239 -18.6716 12.7776 -5.46374
154 2 5.20854 15.7352 1.73855 5.20854 15.7352 1.73855 0 0 0 2.03177 -1.04156 -2.01864 -7.69106 3.78882 2.82595
155 2 4.39529 15.2279 1.2859 4.39529 15.2279 1.2859 0 0 0 -0.00730056 0.565592 0.919222 -8.17047 21.3797 9.22191
156 2 3.82334 15.7708 0.538415 3.82334 15.7708 0.538415 0 0 0 -1.27785 0.795904 0.0222312 0.461593 -10.395 -10.5433
157 2 4.19661 16.6165 0.0355856 4.19661 16.6165 0.0355856 0 0 0 0.730149 0.4374 -0.727898 1.25973 13.3484 20.6444
158 2 3.48333 17.4858 19.8693 3.48333 17.4858 -0.130714 0 0 -1 -1.35094 0.781365 1.30878 25.0832 -8.31183 -21.271
159 2 4.56774 18.0629 19.5505 4.56774 18.0629 -0.449546 0 0 -1 1.4544 0.0673185 -0.266399 5.76243 3.60552 -4.49521
160 2 5.01752 17.4997 0.317449 5.01752 17.4997 0.317449 0 0 0 -1.19798 -0.299375 -0.0589225 5.16902 -12.0046 -3.54828
161 2 4.54508 17.7007 6.94997 4.54508 17.7007 6.94997 0 0 0 0.364528 -1.02497 -0.119417 26.6176 7.42581 -24.4314
162 2 5.17123 17.9579 5.96048 5.17123 17.9579 5.96048 0 0 0 0.545769 0.373378 0.383949 -10.083 9.77354 5.58951
163 2 6.48217 18.277 5.72567 6.48217 18.277 5.72567 0 0 0 0.752166 1.09566 -1.1554 -39.5293 -24.7871 -17.1886
164 2 7.46622 18.3901 6.02599 7.46622 18.3901 6.02599 0 0 0 -0.889601 -0.671421 -0.49624 22.1747 12.9527 16.3661
165 2 8.12104 17.5729 6.30985 8.12104 17.5729 6.30985 0 0 0 -0.94611 2.08467 -2.542 13.4761 28.8294 -6.46874
166 2 8.52164 18.3331 6.98461 8.52164 18.3331 6.98461 0 0 0 1.03206 0.300113 0.812031 -8.94835 -28.9324 -13.3551
167 2 9.19783 18.2017 7.88936 9.19783 18.2017 7.88936 0 0 0 -0.0525627 1.20728 0.776897 2.0916 -3.73791 -5.85772
168 2 9.75906 17.8846 8.70126 9.75906 17.8846 8.70126 0 0 0 2.11595 -2.54193 -1.1411 -4.95593 -7.70505 -3.32821
169 2 10.5906 17.1636 9.08827 10.5906 17.1636 9.08827 0 0 0 1.24771 0.515531 -0.157505 -9.51467 25.4725 4.44139
170 2 11.624 17.2259 9.29858 11.624 17.2259 9.29858 0 0 0 1.71056 -1.71838 1.48014 -3.99318 -6.85087 22.169
171 2 11.9314 16.4592 10.1071 11.9314 16.4592 10.1071 0 0 0 -0.564041 0.488207 -1.1357 15.1608 3.06416 5.52574
172 2 12.5334 15.7081 9.75719 12.5334 15.7081 9.75719 0 0 0 -1.12444 -0.128554 -0.516445 -29.4341 -25.174 -16.1333
173 2 11.6359 15.0564 10.2384 11.6359 15.0564 10.2384 0 0 0 1.26677 -0.62799 1.26497 -6.6704 16.3577 22.0338
174 2 11.0636 14.1704 11.1252 11.0636 14.1704 11.1252 0 0 0 1.25074 0.0745812 0.586147 6.02406 22.6592 -4.96591
175 2 10.6024 13.3032 11.7261 10.6024 13.3032 11.7261 0 0 0 -0.639072 -0.737138 0.107151 20.3179 7.22187 0.586849
176 2 10.7667 12.3136 11.2752 10.7667 12.3136 11.2752 0 0 0 -0.211533 0.570572 0.36018 11.3697 3.31716 3.68209
177 2 11.288 11.343 11.1171 11.288 11.343 11.1171 0 0 0 1.34138 0.956726 0.0977916 9.55762 -2.50302 -21.1114
178 2 11.9749 10.7894 11.6511 11.9749 10.7894 11.6511 0 0 0 2.13123 0.661715 -1.45095 10.7051 3.13898 14.4661
179 2 12.1645 9.87801 12.282 12.1645 9.87801 12.282 0 0 0 0.753124 -1.35148 0.821849 -5.1953 20.2676 12.6797
180 2 11.7075 8.91756 12.666 11.7075 8.91756 12.666 0 0 0 -0.0148546 -1.45674 0.722509 -1.95479 4.79011 -14.3367
181 2 11.9604 8.5882 13.6103 11.9604 8.5882 13.6103 0 0 0 0.157843 -0.211937 0.228932 32.3171 30.3536 17.1696
182 2 11.3965 7.83287 13.6686 11.3965 7.83287 13.6686 0 0 0 1.64371 1.47515 1.29322 -45.1259 -36.7407 -6.45815
183 2 11.4944 6.848 13.6761 11.4944 6.848 13.6761 0 0 0 0.539971 1.17658 -0.678366 23.1469 -28.2303 -1.16058
184 2 12.2686 6.12004 14.1001 12.2686 6.12004 14.1001 0 0 0 1.7953 0.363968 -1.47566 0.56136 5.57007 -2.40711
185 2 11.7449 5.26926 13.7246 11.7449 5.26926 13.7246 0 0 0 -0.51779 -0.278855 0.147324 5.44521 -21.5801 2.08914
186 2 12.819 4.62653 13.8557 12.819 4.62653 13.8557 0 0 0 -0.637368 2.06516 0.829198 -18.7862 0.700235 7.55033
187 2 13.3219 4.05594 12.9867 13.3219 4.05594 12.9867 0 0 0 -1.40822 -1.06551 0.260077 -22.5598 -1.63377 -20.1153
188 2 13.4161 3.76747 11.7708 13.4161 3.76747 11.7708 0 0 0 -0.466771 -2.62086 1.24526 15.012 4.27764 1.00754
189 2 14.3395 3.2125 11.4931 14.3395 3.2125 11.4931 0 0 0 -1.02792 0.930893 0.931166 -2.06322 23.485 7.07096
190 2 15.3493 3.00787 11.3393 15.3493 3.00787 11.3393 0 0 0 1.25574 -1.03193 -0.286205 -25.2389 -8.16599 -37.0979
191 2 15.3255 3.53028 12.1667 15.3255 3.53028 12.1667 0 0 0 0.152234 0.567274 0.422722 11.5797 26.695 38.6538
192 2 16.255 3.04703 11.8614 16.255 3.04703 11.8614 0 0 0 0.0699535 0.0974049 1.23264 -13.8113 8.49282 -2.9087
193 2 15.9348 3.7452 0.697314 15.9348 3.7452 0.697314 0 0 0 -0.295246 -0.958861 -0.678332 -21.1718 -0.103652 -3.52004
194 2 16.3021 4.42637 1.37462 16.3021 4.42637 1.37462 0 0 0 0.873094 0.874424 -0.465175 11.9754 -7.56498 -18.083
195 2 16.5139 5.25975 1.98845 16.5139 5.25975 1.98845 0 0 0 -1.19247 0.455533 0.284152 16.6639 -24.1294 -7.1884
196 2 15.8067 5.90292 1.67584 15.8067 5.90292 1.67584 0 0 0 1.5161 -1.65055 0.483708 -14.3873 18.0424 -2.62691
197 2 15.3208 6.2204 2.68689 15.3208 6.2204 2.68689 0 0 0 0.589022 0.99932 0.0910292 -17.1728 -14.0953 -10.0177
198 2 15.3409 7.24995 3.4045 15.3409 7.24995 3.4045 0 0 0 -1.07324 -0.468962 -1.8923 -29.0005 -24.4163 -19.1696
199 2 14.2566 7.3033 3.48497 14.2566 7.3033 3.48497 0 0 0 0.217498 1.62944 0.129441 -10.235 -6.37866 18.3538
200 2 13.6037 8.25639 3.86154 13.6037 8.25639 3.86154 0 0 0 -0.852744 0.060255 -3.01972 -1.05224 2.1094 12.6763
201 2 12.4776 8.11447 3.92522 12.4776 8.11447 3.92522 0 0 0 0.178488 -0.104182 -1.1816 -6.84821 32.2377 -6.6584
202 2 12.1757 9.23464 4.38869 12.1757 9.23464 4.38869 0 0 0 -1.01937 1.55252 0.800992 12.6253 -5.68605 -7.18035
203 2 11.3927 10.155 4.7171 11.3927 10.155 4.7171 0 0 0 -0.218296 -0.0913716 0.659081 21.3399 -26.8008 -6.03655
204 2 10.4551 10.4633 4.81709 10.4551 10.4633 4.81709 0 0 0 -0.718217 3.51488 -0.910262 -7.62445 -13.6497 18.4107
205 2 9.87223 10.6297 3.96719 9.87223 10.6297 3.96719 0 0 0 -1.95157 -0.197583 -0.541961 -8.65804 27.4244 -13.9755
206 2 9.74246 11.7323 3.68175 9.74246 11.7323 3.68175 0 0 0 -0.103605 0.576351 0.125931 1.50341 -20.8926 18.6561
207 2 8.97135 11.7845 4.35038 8.97135 11.7845 4.35038 0 0 0 -0.461286 -0.25903 -2.25447 -18.2873 -24.479 -17.6449
208 2 8.45945 12.4494 4.9082 8.45945 12.4494 4.9082 0 0 0 0.627387 0.635607 -0.193188 -11.7753 24.7508 18.0812
209 2 8.70048 13.0231 5.91447 8.70048 13.0231 5.91447 0 0 0 1.53296 -1.91986 -0.978694 10.4445 8.67329 -3.98973
210 2 8.14433 13.4304 6.78012 8.14433 13.4304 6.78012 0 0 0 -0.991977 0.247273 0.917299 -4.43737 -1.13872 10.0471
211 2 8.08423 13.359 7.84445 8.08423 13.359 7.84445 0 0 0 1.33344 0.744844 -0.205388 37.9412 -21.7954 -23.4833
212 2 7.56187 13.8785 8.46202 7.56187 13.8785 8.46202 0 0 0 -0.703191 0.235413 0.987504 -7.7323 16.5613 50.7235
213 2 6.75888 13.7909 9.17931 6.75888 13.7909 9.17931 0 0 0 0.420513 -0.0026846 -0.363384 13.6054 5.16632 13.8715
214 2 6.88395 14.7891 8.82103 6.88395 14.7891 8.82103 0 0 0 1.91983 -0.859532 -1.30654 -11.0521 -6.76463 7.13416
215 2 5.82743 14.4036 9.35908 5.82743 14.4036 9.35908 0 0 0 -1.02369 -0.466514 1.76443 15.2427 28.5157 -0.114612
216 2 4.7978 14.8329 9.61056 4.7978 14.8329 9.61056 0 0 0 -0.815485 -2.23091 -0.351948 75.2146 -15.733 128.045
217 2 4.43247 14.843 8.804 4.43247 14.843 8.804 0 0 0 2.1563 0.17719 -0.673172 -68.9859 -13.4818 -177.896
218 2 3.74643 15.5319 8.30709 3.74643 15.5319 8.30709 0 0 0 -1.53132 0.540603 -0.735683 24.9843 15.5384 4.10275
219 2 3.63327 15.743 9.39388 3.63327 15.743 9.39388 0 0 0 -1.69151 -0.435048 0.932302 -10.8203 23.8173 -9.89997
220 2 3.38724 16.2594 10.3172 3.38724 16.2594 10.3172 0 0 0 -0.426016 -0.0770702 0.319505 -4.68531 -0.420379 -7.34137
221 2 2.98676 17.2045 11.0774 2.98676 17.2045 11.0774 0 0 0 0.517246 2.0322 -1.20368 6.73505 14.0838 -22.4971
222 2 2.33477 18.0753 10.941 2.33477 18.0753 10.941 0 0 0 1.54156 -0.534885 0.210365 5.99829 -4.90378 27.4034
223 2 1.62113 18.2952 11.7981 1.62113 18.2952 11.7981 0 0 0 -0.714305 -0.669356 1.29613 -1.11126 -11.3046 -15.9279
224 2 0.482774 18.0606 11.8552 0.482774 18.0606 11.8552 0 0 0 -1.81951 -1.25887 -0.406587 -4.78463 -13.6337 -6.5003
225 2 16.1935 17.5044 16.7022 16.1935 17.5044 16.7022 0 0 0 0.649192 0.78425 -0.636089 -19.7801 -14.2906 13.5078
226 2 15.8755 17.5976 17.7979 15.8755 17.5976 17.7979 0 0 0 0.548914 -0.665704 0.599568 11.4775 -1.98779 -23.1689
227 2 16.6561 16.9035 17.5179 16.6561 16.9035 17.5179 0 0 0 0.402694 0.829226 0.466631 -2.41193 8.35957 20.0853
228 2 16.502 15.9738 17.0236 16.502 15.9738 17.0236 0 0 0 -1.13518 -0.0282957 1.08101 -7.67372 16.4943 22.2761
229 2 15.4319 16.0513 16.9553 15.4319 16.0513 16.9553 0 0 0 1.19962 0.246652 -1.91598 20.2576 16.7117 -14.2565
230 2 14.6079 16.711 16.6818 14.6079 16.711 16.6818 0 0 0 -1.54369 -0.788458 -0.0418381 31.8519 -18.2483 -6.28183
231 2 13.8071 16.1567 16.9806 13.8071 16.1567 16.9806 0 0 0 -2.61013 0.513136 3.06028 4.60516 -39.3024 22.8153
232 2 13.7225 14.9139 17.4418 13.7225 14.9139 17.4418 0 0 0 0.668025 0.387708 -0.343221 -10.1088 36.6789 8.22021
233 2 12.7854 14.6477 17.738 12.7854 14.6477 17.738 0 0 0 -1.70157 -1.12494 0.133847 -9.37873 -16.3779 -16.0529
234 2 12.2331 13.6539 17.5711 12.2331 13.6539 17.5711 0 0 0 0.315313 1.68444 0.260883 -21.9611 11.8471 7.98136
235 2 11.3229 13.1987 17.2102 11.3229 13.1987 17.2102 0 0 0 -1.73906 0.00185509 1.37263 33.2868 14.3277 24.2051
236 2 11.0055 12.4025 16.7679 11.0055 12.4025 16.7679 0 0 0 -1.32303 0.150409 0.159007 -31.3556 -47.6553 -23.9933
237 2 10.9037 11.3912 16.3181 10.9037 11.3912 16.3181 0 0 0 -0.492024 -0.0552597 0.304162 -10.2833 16.7742 -4.01446
238 2 10.4662 10.5713 15.9864 10.4662 10.5713 15.9864 0 0 0 0.219737 -3.08379 1.22522 -29.5082 -38.6774 20.6769
239 2 10.1142 9.67294 16.6897 10.1142 9.67294 16.6897 0 0 0 0.969351 2.16599 1.24771 -12.917 25.7218 -0.670546
240 2 9.08555 9.37769 16.356 9.08555 9.37769 16.356 0 0 0 -0.898289 -1.38758 0.738872 26.9881 24.9599 -20.4359
241 2 8.61331 8.61932 16.7927 8.61331 8.61932 16.7927 0 0 0 1.41533 0.482428 2.24985 -37.4904 7.73021 -15.0691
242 2 7.6293 9.05118 16.4738 7.6293 9.05118 16.4738 0 0 0 0.450537 -0.554523 0.742002 22.0987 8.52972 -8.97379
243 2 7.2402 8.54989 15.6827 7.2402 8.54989 15.6827 0 0 0 0.618192 1.85822 0.434786 3.03532 -11.917 -0.331237
244 2 7.70078 7.96077 14.8802 7.70078 7.96077 14.8802 0 0 0 -0.748061 0.140563 0.70311 -16.3335 0.611554 10.666
245 2 7.00266 7.12511 14.3336 7.00266 7.12511 14.3336 0 0 0 -0.0685702 -0.176649 0.621635 11.5283 29.9463 5.09786
246 2 6.18971 6.47091 14.142 6.18971 6.47091 14.142 0 0 0 0.430201 1.33397 -0.339685 13.5104 9.83174 -10.7032
247 2 5.73603 5.79235 13.0308 5.73603 5.79235 13.0308 0 0 0 -1.23317 -0.974191 0.473152 -13.5153 20.615 13.4863
248 2 6.03688 5.23237 12.1713 6.03688 5.23237 12.1713 0 0 0 0.043743 0.579674 -1.16083 -9.46179 -14.2456 8.59135
249 2 6.16069 4.98282 11.1081 6.16069 4.98282 11.1081 0 0 0 1.36554 0.602416 1.58027 -13.5186 -9.91855 20.9604
250 2 5.14162 4.63244 10.9213 5.14162 4.63244 10.9213 0 0 0 -0.448618 -0.132699 1.44367 12.1986 -1.88277 -17.6625
251 2 4.28258 5.1365 10.3095 4.28258 5.1365 10.3095 0 0 0 0.428763 0.638813 -0.508504 32.0873 -8.40256 9.56295
252 2 3.53432 5.10812 9.68306 3.53432 5.10812 9.68306 0 0 0 1.1826 -0.616611 0.333186 -30.0199 11.2438 -5.16469
253 2 2.7516 4.49229 10.103 2.7516 4.49229 10.103 0 0 0 -1.55075 -0.598191 1.68794 13.6953 2.489 14.8462
254 2 2.04724 4.30634 10.9098 2.04724 4.30634 10.9098 0 0 0 0.46527 0.194018 -2.09017 12.1062 6.3156 6.83264
255 2 1.23222 4.06878 10.277 1.23222 4.06878 10.277 0 0 0 2.10906 0.613079 0.263645 -5.15697 -16.8457 -9.0238
256 2 1.66896 4.2245 9.35856 1.66896 4.2245 9.35856 0 0 0 1.27652 -0.212615 1.15809 -17.7712 -12.362 -6.75
257 1 16.1078 2.18701 10.9893 -3.89225 2.18701 10.9893 -1 0 0 -0.765759 -2.53169 -0.312388 -16.6722 13.2438 -7.81798
258 1 12.1879 6.76083 11.1514 32.1879 6.76083 11.1514 1 0 0 0.374005 -0.395749 0.847933 -21.4095 -6.92521 -13.2703
259 1 4.15017 12.5142 5.75336 4.15017 12.5142 5.75336 0 0 0 -0.979052 -0.834838 1.10832 1.9494 10.7171 -0.261968
260 1 18.296 12.171 15.5452 18.296 12.171 -4.45481 0 0 -1 0.75712 -0.400637 0.462214 19.2551 14.5949 -4.25875
261 1 17.7972 19.2643 2.83203 17.7972 19.2643 2.83203 0 0 0 0.675592 -0.960837 0.805517 -13.4432 -0.194795 -9.76052
262 1 17.3173 4.24093 1.51739 37.3173 4.24093 21.5174 1 0 1 0.35444 0.455638 -0.544838 -0.400677 11.0806 -7.30274
263 1 14.8157 10.5686 10.6963 14.8157 10.5686 10.6963 0 0 0 0.484107 0.863453 -0.813096 -4.2526 8.78912 -4.55936
264 1 4.65876 19.9623 17.2449 4.65876 19.9623 -2.75506 0 0 -1 -0.101791 1.23573 -1.23632 -11.8771 -19.214 -11.5507
265 1 5.30665 8.55394 10.9343 5.30665 8.55394 10.9343 0 0 0 -1.20502 2.74168 1.87066 7.21922 5.31877 -5.78039